                         Program Version 4.2.1 -  RELEASE  -
|  1> ! RKS B3LYP/G D3 def2-SVP miniprint nopop
|  2> %maxcore  1000
|  3> %pal nprocs   2 end
|  4> * xyz   0   1
|  5> C      0.00000000    1.39649000    0.00000000
|  6> C     -1.20939600    0.69824500    0.00000000
|  7> C     -1.20939600   -0.69824500    0.00000000
|  8> C      0.00000000   -1.39649000    0.00000000
|  9> C      1.20939600   -0.69824500    0.00000000
| 10> C      1.20939600    0.69824500    0.00000000
| 11> H      0.00000000    2.48319100    0.00000000
| 12> H     -2.15050600    1.24159500    0.00000000
| 13> H     -2.15050600   -1.24159500    0.00000000
| 14> H      0.00000000   -2.48319100    0.00000000
| 15> H      2.15050600   -1.24159500    0.00000000
| 16> H      2.15050600    1.24159500    0.00000000
| 17>  *
| 18>
| 19>                          ****END OF INPUT****

CARTESIAN COORDINATES (ANGSTROEM)
---------------------------------
  C      0.000000    1.396490    0.000000
  C     -1.209396    0.698245    0.000000
  C     -1.209396   -0.698245    0.000000
  C      0.000000   -1.396490    0.000000
  C      1.209396   -0.698245    0.000000
  C      1.209396    0.698245    0.000000
  H      0.000000    2.483191    0.000000
  H     -2.150506    1.241595    0.000000
  H     -2.150506   -1.241595    0.000000
  H      0.000000   -2.483191    0.000000
  H      2.150506   -1.241595    0.000000
  H      2.150506    1.241595    0.000000

ORBITAL ENERGIES
----------------

  NO   OCC          E(Eh)            E(eV)
   0   2.0000     -10.190562      -277.2993
   1   2.0000     -10.190464      -277.2966
   2   2.0000     -10.190328      -277.2929
   3   2.0000     -10.190034      -277.2849
   4   2.0000     -10.189925      -277.2820
   5   2.0000     -10.189856      -277.2801
   6   2.0000      -0.846375       -23.0310
   7   2.0000      -0.738219       -20.0880
   8   2.0000      -0.738202       -20.0875
   9   2.0000      -0.597923       -16.2703
  10   2.0000      -0.597911       -16.2700
  11   2.0000      -0.523224       -14.2376
  12   2.0000      -0.458095       -12.4654
  13   2.0000      -0.448925       -12.2159
  14   2.0000      -0.423033       -11.5113
  15   2.0000      -0.422990       -11.5101
  16   2.0000      -0.368805       -10.0357
  17   2.0000      -0.346888        -9.4393
  18   2.0000      -0.346872        -9.4389
  19   2.0000      -0.256143        -6.9700
  20   2.0000      -0.256114        -6.9692
  21   0.0000      -0.008905        -0.2423
  22   0.0000      -0.008514        -0.2317
  23   0.0000       0.058935         1.6037
  24   0.0000       0.099174         2.6986
  25   0.0000       0.100831         2.7437

Total SCF time: 0 days 0 hours 0 min 16 sec

Dispersion correction           -0.018902068
FINAL SINGLE POINT ENERGY      -232.103422006302

DIPOLE MOMENT
-------------
                                X             Y             Z
Electronic contribution:     -0.00000      -0.00000       0.00000
Nuclear contribution   :      0.00000       0.00000       0.00000
                        -----------------------------------------
Total Dipole Moment    :     -0.00000      -0.00000       0.00000
                        -----------------------------------------
Magnitude (a.u.)       :      0.00000
Magnitude (Debye)      :      0.00000

Rotational constants in cm-1:     0.189587     0.189587     0.094794
Rotational constants in MHz :  5683.677632  5683.676488  2841.838530

                             ****ORCA TERMINATED NORMALLY****
TOTAL RUN TIME: 0 days 0 hours 0 minutes 20 seconds 113 msec
