                         Program Version 4.2.1 -  RELEASE  -
|  1> ! ROKS B3LYP/G D3 def2-SVP miniprint nopop
|  2> %maxcore  1000
|  3> %pal nprocs   2 end
|  4> * xyz   0   3
|  5> O      0.00000000    0.00000000    0.60729600
|  6> O      0.00000000    0.00000000   -0.60729600
|  7>  *
|  8>
|  9>                          ****END OF INPUT****

CARTESIAN COORDINATES (ANGSTROEM)
---------------------------------
  O      0.000000    0.000000    0.607296
  O      0.000000    0.000000   -0.607296

ORBITAL ENERGIES
----------------

  NO   OCC          E(Eh)            E(eV)
   0   2.0000     -19.275685      -524.5180
   1   2.0000     -19.275450      -524.5117
   2   2.0000      -1.262587       -34.3567
   3   2.0000      -0.775933       -21.1142
   4   2.0000      -0.528077       -14.3697
   5   2.0000      -0.511734       -13.9250
   6   2.0000      -0.511734       -13.9250
   7   1.0000      -0.308582        -8.3970
   8   1.0000      -0.308582        -8.3970
   9   0.0000       0.204120         5.5544
  10   0.0000       0.719288        19.5728
  11   0.0000       0.814345        22.1595
  12   0.0000       0.806861        21.9558
  13   0.0000       0.806861        21.9558

Total SCF time: 0 days 0 hours 0 min 3 sec

Dispersion correction           -0.000455498
FINAL SINGLE POINT ENERGY      -150.201064559616

DIPOLE MOMENT
-------------
                                X             Y             Z
Electronic contribution:     -0.00000      -0.00000      -0.00000
Nuclear contribution   :      0.00000       0.00000       0.00000
                        -----------------------------------------
Total Dipole Moment    :     -0.00000      -0.00000      -0.00000
                        -----------------------------------------
Magnitude (a.u.)       :      0.00000
Magnitude (Debye)      :      0.00000

Rotational constants in cm-1:     0.000000     1.428477     1.428477
Rotational constants in MHz :     0.000000 42824.660494 42824.660494

                             ****ORCA TERMINATED NORMALLY****
TOTAL RUN TIME: 0 days 0 hours 0 minutes 6 seconds 938 msec
