                         Program Version 4.2.1 -  RELEASE  -
|  1> ! UKS B3LYP/G D3 def2-SVP miniprint nopop
|  2> %maxcore  1000
|  3> %pal nprocs   2 end
|  4> * xyz   0   3
|  5> O      0.00000000    0.00000000    0.60729600
|  6> O      0.00000000    0.00000000   -0.60729600
|  7>  *
|  8>
|  9>                          ****END OF INPUT****

CARTESIAN COORDINATES (ANGSTROEM)
---------------------------------
  O      0.000000    0.000000    0.607296
  O      0.000000    0.000000   -0.607296

ORBITAL ENERGIES
----------------
                 SPIN UP ORBITALS
  NO   OCC          E(Eh)            E(eV)
   0   1.0000     -19.290002      -524.9076
   1   1.0000     -19.289687      -524.8991
   2   1.0000      -1.290854       -35.1259
   3   1.0000      -0.819673       -22.3044
   4   1.0000      -0.563909       -15.3447
   5   1.0000      -0.563909       -15.3447
   6   1.0000      -0.547595       -14.9008
   7   1.0000      -0.312057        -8.4915
   8   1.0000      -0.312057        -8.4915
   9   0.0000       0.203353         5.5335
  10   0.0000       0.719867        19.5886
  11   0.0000       0.806242        21.9390
  12   0.0000       0.806242        21.9390
  13   0.0000       0.814640        22.1675

                 SPIN DOWN ORBITALS
  NO   OCC          E(Eh)            E(eV)
   0   1.0000     -19.259768      -524.0849
   1   1.0000     -19.259612      -524.0807
   2   1.0000      -1.234252       -33.5857
   3   1.0000      -0.732101       -19.9215
   4   1.0000      -0.507839       -13.8190
   5   1.0000      -0.460081       -12.5194
   6   1.0000      -0.460081       -12.5194
   7   0.0000      -0.116068        -3.1584
   8   0.0000      -0.116068        -3.1584
   9   0.0000       0.249216         6.7815
  10   0.0000       0.748949        20.3799
  11   0.0000       0.837493        22.7893

Total SCF time: 0 days 0 hours 0 min 3 sec

Dispersion correction           -0.000455498
FINAL SINGLE POINT ENERGY      -150.204914005220

DIPOLE MOMENT
-------------
                                X             Y             Z
Electronic contribution:      0.00000       0.00000      -0.00000
Nuclear contribution   :      0.00000       0.00000       0.00000
                        -----------------------------------------
Total Dipole Moment    :      0.00000       0.00000      -0.00000
                        -----------------------------------------
Magnitude (a.u.)       :      0.00000
Magnitude (Debye)      :      0.00000

Rotational constants in cm-1:     0.000000     1.428477     1.428477
Rotational constants in MHz :     0.000000 42824.660494 42824.660494

                             ****ORCA TERMINATED NORMALLY****
TOTAL RUN TIME: 0 days 0 hours 0 minutes 7 seconds 494 msec
